
.Version 6.12.3 of ABINIT 
.(MPI version, prepared for a x86_64_linux_intel13.1 computer) 

.Copyright (C) 1998-2012 ABINIT group . 
 ABINIT comes with ABSOLUTELY NO WARRANTY.
 It is free software, and you are welcome to redistribute it
 under certain conditions (GNU General Public License,
 see ~abinit/COPYING or http://www.gnu.org/copyleft/gpl.txt).

 ABINIT is a project of the Universite Catholique de Louvain,
 Corning Inc. and other collaborators, see ~abinit/doc/developers/contributors.txt .
 Please read ~abinit/doc/users/acknowledgments.html for suggested
 acknowledgments of the ABINIT effort.
 For more information, see http://www.abinit.org .

.Starting date : Wed 31 Aug 2016.
- ( at 13h35 )
  

 herald :  WARNING -
  The starting date is more than 3 years after the initial release
  of this version of ABINIT, namely Mar 2012.
  This version of ABINIT is not supported anymore.
  Action : please, switch to a more recent version of ABINIT.
- input  file    -> spectra.in
- output file    -> spectra.out
- root for input  files -> spectrai
- root for output files -> spectrao


 DATASET    1 : space group Im -3 m (#229); Bravais cI (body-center cubic)
================================================================================
 Values of the parameters that define the memory need for DATASET  1.
   intxc =         0  ionmov =         0    iscf =         7 xclevel =         1
  lmnmax =         4   lnmax =         4   mband =        60  mffmem =         1
P  mgfft =        16   mkmem =         4 mpssoang=         4     mpw =       168
  mqgrid =      3001   natom =         1    nfft =      4096    nkpt =       256
  nloalg =         4  nspden =         1 nspinor =         1  nsppol =         1
    nsym =        48  n1xccc =      2501  ntypat =         1  occopt =         3
================================================================================
P This job should need less than                       5.264 Mbytes of memory.
  Rough estimation (10% accuracy) of disk space for files :
  WF disk file :     39.377 Mbytes ; DEN or POT disk file :      0.033 Mbytes.
================================================================================

--------------------------------------------------------------------------------
------------- Echo of variables that govern the present computation ------------
--------------------------------------------------------------------------------
-
- outvars: echo of selected default values                                      
-   accesswff0 =  0 , fftalg0 =112 , wfoptalg0 =  0
-
- outvars: echo of global parameters not present in the input file              
-   nproc =   64
-
 -outvars: echo values of preprocessed input variables --------
            acell      7.9840929114E+00  7.9840929114E+00  7.9840929114E+00 Bohr
              amu      2.29897680E+01
             bdgw           1       1       1       1       1       1       1       1
                            1       1       1       1       1       1       1       1
                            1       1       1       1       1       1       1       1
                            1       1       1       1       1       1       1       1
                            1       1       1       1       1       1       1       1
                            1       1       1       1       1       1       1       1
                            1       1       1       1       1       1       1       1
                            1       1       1       1       1       1       1       1
                            1       1       1       1       1       1       1       1
                            1       1       1       1       1       1       1       1
                            1       1       1       1       1       1       1       1
                            1       1       1       1       1       1       1       1
                            1       1       1       1       1       1       1       1
                            1       1       1       1       1       1       1       1
                            1       1       1       1       1       1       1       1
                            1       1       1       1       1       1       1       1
                            1       1       1       1       1       1       1       1
                            1       1       1       1       1       1       1       1
                            1       1       1       1       1       1       1       1
                            1       1       1       1       1       1       1       1
                            1       1       1       1       1       1       1       1
                            1       1       1       1       1       1       1       1
                            1       1       1       1       1       1       1       1
                            1       1       1       1       1       1       1       1
                            1       1       1       1       1       1       1       1
                            1       1       1       1       1       1       1       1
                            1       1       1       1       1       1       1       1
                            1       1       1       1       1       1       1       1
                            1       1       1       1       1       1       1       1
                            1       1       1       1       1       1       1       1
                            1       1       1       1       1       1       1       1
                            1       1       1       1       1       1       1       1
                            1       1       1       1       1       1       1       1
                            1       1       1       1       1       1       1       1
                            1       1       1       1       1       1       1       1
                            1       1       1       1       1       1       1       1
                            1       1       1       1       1       1       1       1
                            1       1       1       1       1       1       1       1
                            1       1       1       1       1       1       1       1
                            1       1       1       1       1       1       1       1
                            1       1       1       1       1       1       1       1
                            1       1       1       1       1       1       1       1
                            1       1       1       1       1       1       1       1
                            1       1       1       1       1       1       1       1
                            1       1       1       1       1       1       1       1
                            1       1       1       1       1       1       1       1
                            1       1       1       1       1       1       1       1
                            1       1       1       1       1       1       1       1
                            1       1       1       1       1       1       1       1
                            1       1       1       1       1       1       1       1
                            1       1       1       1       1       1       1       1
                            1       1       1       1       1       1       1       1
                            1       1       1       1       1       1       1       1
                            1       1       1       1       1       1       1       1
                            1       1       1       1       1       1       1       1
                            1       1       1       1       1       1       1       1
                            1       1       1       1       1       1       1       1
                            1       1       1       1       1       1       1       1
                            1       1       1       1       1       1       1       1
                            1       1       1       1       1       1       1       1
                            1       1       1       1       1       1       1       1
                            1       1       1       1       1       1       1       1
                            1       1       1       1       1       1       1       1
                            1       1       1       1       1       1       1       1
             ecut      5.57379616E+00 Hartree
         ecutsigx      5.57379616E+00 Hartree
          ecutwfn      5.57379616E+00 Hartree
            fftgw          11
        freqspmin     -7.34986508E-01 Hartree
        freqspmax      1.83746627E+00 Hartree
           getqps           1
           getscr           1
           getkss           1
        gwcalctyp          12
           istwfk        1    0    0    0    0    0    0    0    0    0
                         1    0    0    0    0    0    0    0    0    0
                         0    0    0    0    0    0    0    0    0    0
                         0    0    0    0    0    0    0    0    0    0
                         0    0    0    0    0    0    0    0    0    0
                         0    0    0    0    0    0    0    0    0    0
                         0    0    0    0    0    0    0    0    0    0
                         0    0    0    0    0    0    0    0    0    0
                         0    0    0    0    0    0    0    0    0    0
                         0    0    0    0    0    0    0    0    0    0
                         0    0    0    0    0    0    0    0    0    0
                         0    0    0    0    0    0    0    0    0    0
                         0    0    0    0    0    0    0    0    0    0
                         0    0    0    0    0    0    0    0    0    0
                         0    0    0    0    0    0    0    0    0    0
                         0    0    0    0    0    0    0    0    0    0
                         0    0    0    0    0    0    0    0    0    0
                         0    0    0    0    0    0    0    0    0    0
                         0    0    0    0    0    0    0    0    0    0
                         0    0    0    0    0    0    0    0    0    0
                         0    0    0    0    0    0    0    0    0    0
                         0    0    0    0    0    0    0    0    0    0
                         0    0    0    0    0    0    0    0    0    0
                         0    0    0    0    0    0    0    0    0    0
                         0    0    0    0    0    0    0    0    0    0
                         0    0    0    0    0    1
              ixc           7
           jdtset        1
              kpt      0.00000000E+00  0.00000000E+00  0.00000000E+00
                       5.00000000E-02  0.00000000E+00  0.00000000E+00
                       1.00000000E-01  0.00000000E+00  0.00000000E+00
                       1.50000000E-01  0.00000000E+00  0.00000000E+00
                       2.00000000E-01  0.00000000E+00  0.00000000E+00
                       2.50000000E-01  0.00000000E+00  0.00000000E+00
                       3.00000000E-01  0.00000000E+00  0.00000000E+00
                       3.50000000E-01  0.00000000E+00  0.00000000E+00
                       4.00000000E-01  0.00000000E+00  0.00000000E+00
                       4.50000000E-01  0.00000000E+00  0.00000000E+00
                       5.00000000E-01  0.00000000E+00  0.00000000E+00
                       5.00000000E-02  5.00000000E-02  0.00000000E+00
                       1.00000000E-01  5.00000000E-02  0.00000000E+00
                       1.50000000E-01  5.00000000E-02  0.00000000E+00
                       2.00000000E-01  5.00000000E-02  0.00000000E+00
                       2.50000000E-01  5.00000000E-02  0.00000000E+00
                       3.00000000E-01  5.00000000E-02  0.00000000E+00
                       3.50000000E-01  5.00000000E-02  0.00000000E+00
                       4.00000000E-01  5.00000000E-02  0.00000000E+00
                       4.50000000E-01  5.00000000E-02  0.00000000E+00
                       1.00000000E-01  1.00000000E-01  0.00000000E+00
                       1.50000000E-01  1.00000000E-01  0.00000000E+00
                       2.00000000E-01  1.00000000E-01  0.00000000E+00
                       2.50000000E-01  1.00000000E-01  0.00000000E+00
                       3.00000000E-01  1.00000000E-01  0.00000000E+00
                       3.50000000E-01  1.00000000E-01  0.00000000E+00
                       4.00000000E-01  1.00000000E-01  0.00000000E+00
                       4.50000000E-01  1.00000000E-01  0.00000000E+00
                       1.50000000E-01  1.50000000E-01  0.00000000E+00
                       2.00000000E-01  1.50000000E-01  0.00000000E+00
                       2.50000000E-01  1.50000000E-01  0.00000000E+00
                       3.00000000E-01  1.50000000E-01  0.00000000E+00
                       3.50000000E-01  1.50000000E-01  0.00000000E+00
                       4.00000000E-01  1.50000000E-01  0.00000000E+00
                       2.00000000E-01  2.00000000E-01  0.00000000E+00
                       2.50000000E-01  2.00000000E-01  0.00000000E+00
                       3.00000000E-01  2.00000000E-01  0.00000000E+00
                       3.50000000E-01  2.00000000E-01  0.00000000E+00
                       4.00000000E-01  2.00000000E-01  0.00000000E+00
                       2.50000000E-01  2.50000000E-01  0.00000000E+00
                       3.00000000E-01  2.50000000E-01  0.00000000E+00
                       3.50000000E-01  2.50000000E-01  0.00000000E+00
                       3.00000000E-01  3.00000000E-01  0.00000000E+00
                       3.50000000E-01  3.00000000E-01  0.00000000E+00
                       5.00000000E-02  5.00000000E-02  5.00000000E-02
                       1.00000000E-01  5.00000000E-02  5.00000000E-02
                       1.50000000E-01  5.00000000E-02  5.00000000E-02
                       2.00000000E-01  5.00000000E-02  5.00000000E-02
                       2.50000000E-01  5.00000000E-02  5.00000000E-02
                       3.00000000E-01  5.00000000E-02  5.00000000E-02
                       3.50000000E-01  5.00000000E-02  5.00000000E-02
                       4.00000000E-01  5.00000000E-02  5.00000000E-02
                       4.50000000E-01  5.00000000E-02  5.00000000E-02
                      -5.00000000E-02  5.00000000E-02  5.00000000E-02
                       1.00000000E-01  1.00000000E-01  5.00000000E-02
                       1.50000000E-01  1.00000000E-01  5.00000000E-02
                       2.00000000E-01  1.00000000E-01  5.00000000E-02
                       2.50000000E-01  1.00000000E-01  5.00000000E-02
                       3.00000000E-01  1.00000000E-01  5.00000000E-02
                       3.50000000E-01  1.00000000E-01  5.00000000E-02
                       4.00000000E-01  1.00000000E-01  5.00000000E-02
                      -1.00000000E-01  1.00000000E-01  5.00000000E-02
                       1.50000000E-01  1.50000000E-01  5.00000000E-02
                       2.00000000E-01  1.50000000E-01  5.00000000E-02
                       2.50000000E-01  1.50000000E-01  5.00000000E-02
                       3.00000000E-01  1.50000000E-01  5.00000000E-02
                       3.50000000E-01  1.50000000E-01  5.00000000E-02
                       4.00000000E-01  1.50000000E-01  5.00000000E-02
                      -1.50000000E-01  1.50000000E-01  5.00000000E-02
                      -1.00000000E-01  1.50000000E-01  5.00000000E-02
                       2.00000000E-01  2.00000000E-01  5.00000000E-02
                       2.50000000E-01  2.00000000E-01  5.00000000E-02
                       3.00000000E-01  2.00000000E-01  5.00000000E-02
                       3.50000000E-01  2.00000000E-01  5.00000000E-02
                      -2.00000000E-01  2.00000000E-01  5.00000000E-02
                      -1.50000000E-01  2.00000000E-01  5.00000000E-02
                       2.50000000E-01  2.50000000E-01  5.00000000E-02
                       3.00000000E-01  2.50000000E-01  5.00000000E-02
                       3.50000000E-01  2.50000000E-01  5.00000000E-02
                      -2.50000000E-01  2.50000000E-01  5.00000000E-02
                      -2.00000000E-01  2.50000000E-01  5.00000000E-02
                      -1.50000000E-01  2.50000000E-01  5.00000000E-02
                       3.00000000E-01  3.00000000E-01  5.00000000E-02
                      -3.00000000E-01  3.00000000E-01  5.00000000E-02
                      -2.50000000E-01  3.00000000E-01  5.00000000E-02
                      -2.00000000E-01  3.00000000E-01  5.00000000E-02
                      -3.50000000E-01  3.50000000E-01  5.00000000E-02
                      -3.00000000E-01  3.50000000E-01  5.00000000E-02
                      -2.50000000E-01  3.50000000E-01  5.00000000E-02
                      -2.00000000E-01  3.50000000E-01  5.00000000E-02
                      -4.00000000E-01  4.00000000E-01  5.00000000E-02
                      -3.50000000E-01  4.00000000E-01  5.00000000E-02
                      -3.00000000E-01  4.00000000E-01  5.00000000E-02
                      -2.50000000E-01  4.00000000E-01  5.00000000E-02
                      -4.50000000E-01  4.50000000E-01  5.00000000E-02
                      -4.00000000E-01  4.50000000E-01  5.00000000E-02
                      -3.50000000E-01  4.50000000E-01  5.00000000E-02
                      -3.00000000E-01  4.50000000E-01  5.00000000E-02
                      -2.50000000E-01  4.50000000E-01  5.00000000E-02
                       5.00000000E-01  5.00000000E-01  5.00000000E-02
                      -4.50000000E-01  5.00000000E-01  5.00000000E-02
                      -4.00000000E-01  5.00000000E-01  5.00000000E-02
                      -3.50000000E-01  5.00000000E-01  5.00000000E-02
                      -3.00000000E-01  5.00000000E-01  5.00000000E-02
                      -4.50000000E-01 -4.50000000E-01  5.00000000E-02
                      -4.00000000E-01 -4.50000000E-01  5.00000000E-02
                      -3.50000000E-01 -4.50000000E-01  5.00000000E-02
                      -3.00000000E-01 -4.50000000E-01  5.00000000E-02
                      -4.00000000E-01 -4.00000000E-01  5.00000000E-02
                      -3.50000000E-01 -4.00000000E-01  5.00000000E-02
                      -3.50000000E-01 -3.50000000E-01  5.00000000E-02
                       1.00000000E-01  1.00000000E-01  1.00000000E-01
                       1.50000000E-01  1.00000000E-01  1.00000000E-01
                       2.00000000E-01  1.00000000E-01  1.00000000E-01
                       2.50000000E-01  1.00000000E-01  1.00000000E-01
                       3.00000000E-01  1.00000000E-01  1.00000000E-01
                       3.50000000E-01  1.00000000E-01  1.00000000E-01
                       4.00000000E-01  1.00000000E-01  1.00000000E-01
                      -1.00000000E-01  1.00000000E-01  1.00000000E-01
                       1.50000000E-01  1.50000000E-01  1.00000000E-01
                       2.00000000E-01  1.50000000E-01  1.00000000E-01
                       2.50000000E-01  1.50000000E-01  1.00000000E-01
                       3.00000000E-01  1.50000000E-01  1.00000000E-01
                       3.50000000E-01  1.50000000E-01  1.00000000E-01
                      -1.50000000E-01  1.50000000E-01  1.00000000E-01
                       2.00000000E-01  2.00000000E-01  1.00000000E-01
                       2.50000000E-01  2.00000000E-01  1.00000000E-01
                       3.00000000E-01  2.00000000E-01  1.00000000E-01
                       3.50000000E-01  2.00000000E-01  1.00000000E-01
                      -2.00000000E-01  2.00000000E-01  1.00000000E-01
                      -1.50000000E-01  2.00000000E-01  1.00000000E-01
                       2.50000000E-01  2.50000000E-01  1.00000000E-01
                       3.00000000E-01  2.50000000E-01  1.00000000E-01
                      -2.50000000E-01  2.50000000E-01  1.00000000E-01
                      -2.00000000E-01  2.50000000E-01  1.00000000E-01
                       3.00000000E-01  3.00000000E-01  1.00000000E-01
                      -3.00000000E-01  3.00000000E-01  1.00000000E-01
                      -2.50000000E-01  3.00000000E-01  1.00000000E-01
                      -2.00000000E-01  3.00000000E-01  1.00000000E-01
                      -3.50000000E-01  3.50000000E-01  1.00000000E-01
                      -3.00000000E-01  3.50000000E-01  1.00000000E-01
                      -2.50000000E-01  3.50000000E-01  1.00000000E-01
                      -4.00000000E-01  4.00000000E-01  1.00000000E-01
                      -3.50000000E-01  4.00000000E-01  1.00000000E-01
                      -3.00000000E-01  4.00000000E-01  1.00000000E-01
                      -2.50000000E-01  4.00000000E-01  1.00000000E-01
                      -4.50000000E-01  4.50000000E-01  1.00000000E-01
                      -4.00000000E-01  4.50000000E-01  1.00000000E-01
                      -3.50000000E-01  4.50000000E-01  1.00000000E-01
                      -3.00000000E-01  4.50000000E-01  1.00000000E-01
                       5.00000000E-01  5.00000000E-01  1.00000000E-01
                      -4.50000000E-01  5.00000000E-01  1.00000000E-01
                      -4.00000000E-01  5.00000000E-01  1.00000000E-01
                      -3.50000000E-01  5.00000000E-01  1.00000000E-01
                      -3.00000000E-01  5.00000000E-01  1.00000000E-01
                      -4.50000000E-01 -4.50000000E-01  1.00000000E-01
                      -4.00000000E-01 -4.50000000E-01  1.00000000E-01
                      -3.50000000E-01 -4.50000000E-01  1.00000000E-01
                      -4.00000000E-01 -4.00000000E-01  1.00000000E-01
                      -3.50000000E-01 -4.00000000E-01  1.00000000E-01
                       1.50000000E-01  1.50000000E-01  1.50000000E-01
                       2.00000000E-01  1.50000000E-01  1.50000000E-01
                       2.50000000E-01  1.50000000E-01  1.50000000E-01
                       3.00000000E-01  1.50000000E-01  1.50000000E-01
                       3.50000000E-01  1.50000000E-01  1.50000000E-01
                      -1.50000000E-01  1.50000000E-01  1.50000000E-01
                       2.00000000E-01  2.00000000E-01  1.50000000E-01
                       2.50000000E-01  2.00000000E-01  1.50000000E-01
                       3.00000000E-01  2.00000000E-01  1.50000000E-01
                      -2.00000000E-01  2.00000000E-01  1.50000000E-01
                       2.50000000E-01  2.50000000E-01  1.50000000E-01
                       3.00000000E-01  2.50000000E-01  1.50000000E-01
                      -2.50000000E-01  2.50000000E-01  1.50000000E-01
                      -2.00000000E-01  2.50000000E-01  1.50000000E-01
                      -3.00000000E-01  3.00000000E-01  1.50000000E-01
                      -2.50000000E-01  3.00000000E-01  1.50000000E-01
                      -3.50000000E-01  3.50000000E-01  1.50000000E-01
                      -3.00000000E-01  3.50000000E-01  1.50000000E-01
                      -2.50000000E-01  3.50000000E-01  1.50000000E-01
                      -4.00000000E-01  4.00000000E-01  1.50000000E-01
                      -3.50000000E-01  4.00000000E-01  1.50000000E-01
                      -3.00000000E-01  4.00000000E-01  1.50000000E-01
                      -4.50000000E-01  4.50000000E-01  1.50000000E-01
                      -4.00000000E-01  4.50000000E-01  1.50000000E-01
                      -3.50000000E-01  4.50000000E-01  1.50000000E-01
                      -3.00000000E-01  4.50000000E-01  1.50000000E-01
                       5.00000000E-01  5.00000000E-01  1.50000000E-01
                      -4.50000000E-01  5.00000000E-01  1.50000000E-01
                      -4.00000000E-01  5.00000000E-01  1.50000000E-01
                      -3.50000000E-01  5.00000000E-01  1.50000000E-01
                      -4.50000000E-01 -4.50000000E-01  1.50000000E-01
                      -4.00000000E-01 -4.50000000E-01  1.50000000E-01
                      -3.50000000E-01 -4.50000000E-01  1.50000000E-01
                      -4.00000000E-01 -4.00000000E-01  1.50000000E-01
                       2.00000000E-01  2.00000000E-01  2.00000000E-01
                       2.50000000E-01  2.00000000E-01  2.00000000E-01
                       3.00000000E-01  2.00000000E-01  2.00000000E-01
                      -2.00000000E-01  2.00000000E-01  2.00000000E-01
                       2.50000000E-01  2.50000000E-01  2.00000000E-01
                      -2.50000000E-01  2.50000000E-01  2.00000000E-01
                      -3.00000000E-01  3.00000000E-01  2.00000000E-01
                      -2.50000000E-01  3.00000000E-01  2.00000000E-01
                      -3.50000000E-01  3.50000000E-01  2.00000000E-01
                      -3.00000000E-01  3.50000000E-01  2.00000000E-01
                      -4.00000000E-01  4.00000000E-01  2.00000000E-01
                      -3.50000000E-01  4.00000000E-01  2.00000000E-01
                      -3.00000000E-01  4.00000000E-01  2.00000000E-01
                      -4.50000000E-01  4.50000000E-01  2.00000000E-01
                      -4.00000000E-01  4.50000000E-01  2.00000000E-01
                      -3.50000000E-01  4.50000000E-01  2.00000000E-01
                       5.00000000E-01  5.00000000E-01  2.00000000E-01
                      -4.50000000E-01  5.00000000E-01  2.00000000E-01
                      -4.00000000E-01  5.00000000E-01  2.00000000E-01
                      -3.50000000E-01  5.00000000E-01  2.00000000E-01
                      -4.50000000E-01 -4.50000000E-01  2.00000000E-01
                      -4.00000000E-01 -4.50000000E-01  2.00000000E-01
                      -4.00000000E-01 -4.00000000E-01  2.00000000E-01
                       2.50000000E-01  2.50000000E-01  2.50000000E-01
                      -2.50000000E-01  2.50000000E-01  2.50000000E-01
                      -3.00000000E-01  3.00000000E-01  2.50000000E-01
                      -3.50000000E-01  3.50000000E-01  2.50000000E-01
                      -3.00000000E-01  3.50000000E-01  2.50000000E-01
                      -4.00000000E-01  4.00000000E-01  2.50000000E-01
                      -3.50000000E-01  4.00000000E-01  2.50000000E-01
                      -4.50000000E-01  4.50000000E-01  2.50000000E-01
                      -4.00000000E-01  4.50000000E-01  2.50000000E-01
                      -3.50000000E-01  4.50000000E-01  2.50000000E-01
                       5.00000000E-01  5.00000000E-01  2.50000000E-01
                      -4.50000000E-01  5.00000000E-01  2.50000000E-01
                      -4.00000000E-01  5.00000000E-01  2.50000000E-01
                      -4.50000000E-01 -4.50000000E-01  2.50000000E-01
                      -4.00000000E-01 -4.50000000E-01  2.50000000E-01
                      -3.00000000E-01  3.00000000E-01  3.00000000E-01
                      -3.50000000E-01  3.50000000E-01  3.00000000E-01
                      -4.00000000E-01  4.00000000E-01  3.00000000E-01
                      -3.50000000E-01  4.00000000E-01  3.00000000E-01
                      -4.50000000E-01  4.50000000E-01  3.00000000E-01
                      -4.00000000E-01  4.50000000E-01  3.00000000E-01
                       5.00000000E-01  5.00000000E-01  3.00000000E-01
                      -4.50000000E-01  5.00000000E-01  3.00000000E-01
                      -4.00000000E-01  5.00000000E-01  3.00000000E-01
                      -4.50000000E-01 -4.50000000E-01  3.00000000E-01
                      -3.50000000E-01  3.50000000E-01  3.50000000E-01
                      -4.00000000E-01  4.00000000E-01  3.50000000E-01
                      -4.50000000E-01  4.50000000E-01  3.50000000E-01
                      -4.00000000E-01  4.50000000E-01  3.50000000E-01
                       5.00000000E-01  5.00000000E-01  3.50000000E-01
                      -4.50000000E-01  5.00000000E-01  3.50000000E-01
                      -4.50000000E-01 -4.50000000E-01  3.50000000E-01
                      -4.00000000E-01  4.00000000E-01  4.00000000E-01
                      -4.50000000E-01  4.50000000E-01  4.00000000E-01
                       5.00000000E-01  5.00000000E-01  4.00000000E-01
                      -4.50000000E-01  5.00000000E-01  4.00000000E-01
                      -4.50000000E-01  4.50000000E-01  4.50000000E-01
                       5.00000000E-01  5.00000000E-01  4.50000000E-01
                       5.00000000E-01  5.00000000E-01  5.00000000E-01
            kptgw      0.00000000E+00  0.00000000E+00  0.00000000E+00
                       5.00000000E-02  0.00000000E+00  0.00000000E+00
                       1.00000000E-01  0.00000000E+00  0.00000000E+00
                       1.50000000E-01  0.00000000E+00  0.00000000E+00
                       2.00000000E-01  0.00000000E+00  0.00000000E+00
                       2.50000000E-01  0.00000000E+00  0.00000000E+00
                       3.00000000E-01  0.00000000E+00  0.00000000E+00
                       3.50000000E-01  0.00000000E+00  0.00000000E+00
                       4.00000000E-01  0.00000000E+00  0.00000000E+00
                       4.50000000E-01  0.00000000E+00  0.00000000E+00
                       5.00000000E-01  0.00000000E+00  0.00000000E+00
                       5.00000000E-02  5.00000000E-02  0.00000000E+00
                       1.00000000E-01  5.00000000E-02  0.00000000E+00
                       1.50000000E-01  5.00000000E-02  0.00000000E+00
                       2.00000000E-01  5.00000000E-02  0.00000000E+00
                       2.50000000E-01  5.00000000E-02  0.00000000E+00
                       3.00000000E-01  5.00000000E-02  0.00000000E+00
                       3.50000000E-01  5.00000000E-02  0.00000000E+00
                       4.00000000E-01  5.00000000E-02  0.00000000E+00
                       4.50000000E-01  5.00000000E-02  0.00000000E+00
                       1.00000000E-01  1.00000000E-01  0.00000000E+00
                       1.50000000E-01  1.00000000E-01  0.00000000E+00
                       2.00000000E-01  1.00000000E-01  0.00000000E+00
                       2.50000000E-01  1.00000000E-01  0.00000000E+00
                       3.00000000E-01  1.00000000E-01  0.00000000E+00
                       3.50000000E-01  1.00000000E-01  0.00000000E+00
                       4.00000000E-01  1.00000000E-01  0.00000000E+00
                       4.50000000E-01  1.00000000E-01  0.00000000E+00
                       1.50000000E-01  1.50000000E-01  0.00000000E+00
                       2.00000000E-01  1.50000000E-01  0.00000000E+00
                       2.50000000E-01  1.50000000E-01  0.00000000E+00
                       3.00000000E-01  1.50000000E-01  0.00000000E+00
                       3.50000000E-01  1.50000000E-01  0.00000000E+00
                       4.00000000E-01  1.50000000E-01  0.00000000E+00
                       2.00000000E-01  2.00000000E-01  0.00000000E+00
                       2.50000000E-01  2.00000000E-01  0.00000000E+00
                       3.00000000E-01  2.00000000E-01  0.00000000E+00
                       3.50000000E-01  2.00000000E-01  0.00000000E+00
                       4.00000000E-01  2.00000000E-01  0.00000000E+00
                       2.50000000E-01  2.50000000E-01  0.00000000E+00
                       3.00000000E-01  2.50000000E-01  0.00000000E+00
                       3.50000000E-01  2.50000000E-01  0.00000000E+00
                       3.00000000E-01  3.00000000E-01  0.00000000E+00
                       3.50000000E-01  3.00000000E-01  0.00000000E+00
                       5.00000000E-02  5.00000000E-02  5.00000000E-02
                       1.00000000E-01  5.00000000E-02  5.00000000E-02
                       1.50000000E-01  5.00000000E-02  5.00000000E-02
                       2.00000000E-01  5.00000000E-02  5.00000000E-02
                       2.50000000E-01  5.00000000E-02  5.00000000E-02
                       3.00000000E-01  5.00000000E-02  5.00000000E-02
                       3.50000000E-01  5.00000000E-02  5.00000000E-02
                       4.00000000E-01  5.00000000E-02  5.00000000E-02
                       4.50000000E-01  5.00000000E-02  5.00000000E-02
                      -5.00000000E-02  5.00000000E-02  5.00000000E-02
                       1.00000000E-01  1.00000000E-01  5.00000000E-02
                       1.50000000E-01  1.00000000E-01  5.00000000E-02
                       2.00000000E-01  1.00000000E-01  5.00000000E-02
                       2.50000000E-01  1.00000000E-01  5.00000000E-02
                       3.00000000E-01  1.00000000E-01  5.00000000E-02
                       3.50000000E-01  1.00000000E-01  5.00000000E-02
                       4.00000000E-01  1.00000000E-01  5.00000000E-02
                      -1.00000000E-01  1.00000000E-01  5.00000000E-02
                       1.50000000E-01  1.50000000E-01  5.00000000E-02
                       2.00000000E-01  1.50000000E-01  5.00000000E-02
                       2.50000000E-01  1.50000000E-01  5.00000000E-02
                       3.00000000E-01  1.50000000E-01  5.00000000E-02
                       3.50000000E-01  1.50000000E-01  5.00000000E-02
                       4.00000000E-01  1.50000000E-01  5.00000000E-02
                      -1.50000000E-01  1.50000000E-01  5.00000000E-02
                      -1.00000000E-01  1.50000000E-01  5.00000000E-02
                       2.00000000E-01  2.00000000E-01  5.00000000E-02
                       2.50000000E-01  2.00000000E-01  5.00000000E-02
                       3.00000000E-01  2.00000000E-01  5.00000000E-02
                       3.50000000E-01  2.00000000E-01  5.00000000E-02
                      -2.00000000E-01  2.00000000E-01  5.00000000E-02
                      -1.50000000E-01  2.00000000E-01  5.00000000E-02
                       2.50000000E-01  2.50000000E-01  5.00000000E-02
                       3.00000000E-01  2.50000000E-01  5.00000000E-02
                       3.50000000E-01  2.50000000E-01  5.00000000E-02
                      -2.50000000E-01  2.50000000E-01  5.00000000E-02
                      -2.00000000E-01  2.50000000E-01  5.00000000E-02
                      -1.50000000E-01  2.50000000E-01  5.00000000E-02
                       3.00000000E-01  3.00000000E-01  5.00000000E-02
                      -3.00000000E-01  3.00000000E-01  5.00000000E-02
                      -2.50000000E-01  3.00000000E-01  5.00000000E-02
                      -2.00000000E-01  3.00000000E-01  5.00000000E-02
                      -3.50000000E-01  3.50000000E-01  5.00000000E-02
                      -3.00000000E-01  3.50000000E-01  5.00000000E-02
                      -2.50000000E-01  3.50000000E-01  5.00000000E-02
                      -2.00000000E-01  3.50000000E-01  5.00000000E-02
                      -4.00000000E-01  4.00000000E-01  5.00000000E-02
                      -3.50000000E-01  4.00000000E-01  5.00000000E-02
                      -3.00000000E-01  4.00000000E-01  5.00000000E-02
                      -2.50000000E-01  4.00000000E-01  5.00000000E-02
                      -4.50000000E-01  4.50000000E-01  5.00000000E-02
                      -4.00000000E-01  4.50000000E-01  5.00000000E-02
                      -3.50000000E-01  4.50000000E-01  5.00000000E-02
                      -3.00000000E-01  4.50000000E-01  5.00000000E-02
                      -2.50000000E-01  4.50000000E-01  5.00000000E-02
                       5.00000000E-01  5.00000000E-01  5.00000000E-02
                      -4.50000000E-01  5.00000000E-01  5.00000000E-02
                      -4.00000000E-01  5.00000000E-01  5.00000000E-02
                      -3.50000000E-01  5.00000000E-01  5.00000000E-02
                      -3.00000000E-01  5.00000000E-01  5.00000000E-02
                      -4.50000000E-01 -4.50000000E-01  5.00000000E-02
                      -4.00000000E-01 -4.50000000E-01  5.00000000E-02
                      -3.50000000E-01 -4.50000000E-01  5.00000000E-02
                      -3.00000000E-01 -4.50000000E-01  5.00000000E-02
                      -4.00000000E-01 -4.00000000E-01  5.00000000E-02
                      -3.50000000E-01 -4.00000000E-01  5.00000000E-02
                      -3.50000000E-01 -3.50000000E-01  5.00000000E-02
                       1.00000000E-01  1.00000000E-01  1.00000000E-01
                       1.50000000E-01  1.00000000E-01  1.00000000E-01
                       2.00000000E-01  1.00000000E-01  1.00000000E-01
                       2.50000000E-01  1.00000000E-01  1.00000000E-01
                       3.00000000E-01  1.00000000E-01  1.00000000E-01
                       3.50000000E-01  1.00000000E-01  1.00000000E-01
                       4.00000000E-01  1.00000000E-01  1.00000000E-01
                      -1.00000000E-01  1.00000000E-01  1.00000000E-01
                       1.50000000E-01  1.50000000E-01  1.00000000E-01
                       2.00000000E-01  1.50000000E-01  1.00000000E-01
                       2.50000000E-01  1.50000000E-01  1.00000000E-01
                       3.00000000E-01  1.50000000E-01  1.00000000E-01
                       3.50000000E-01  1.50000000E-01  1.00000000E-01
                      -1.50000000E-01  1.50000000E-01  1.00000000E-01
                       2.00000000E-01  2.00000000E-01  1.00000000E-01
                       2.50000000E-01  2.00000000E-01  1.00000000E-01
                       3.00000000E-01  2.00000000E-01  1.00000000E-01
                       3.50000000E-01  2.00000000E-01  1.00000000E-01
                      -2.00000000E-01  2.00000000E-01  1.00000000E-01
                      -1.50000000E-01  2.00000000E-01  1.00000000E-01
                       2.50000000E-01  2.50000000E-01  1.00000000E-01
                       3.00000000E-01  2.50000000E-01  1.00000000E-01
                      -2.50000000E-01  2.50000000E-01  1.00000000E-01
                      -2.00000000E-01  2.50000000E-01  1.00000000E-01
                       3.00000000E-01  3.00000000E-01  1.00000000E-01
                      -3.00000000E-01  3.00000000E-01  1.00000000E-01
                      -2.50000000E-01  3.00000000E-01  1.00000000E-01
                      -2.00000000E-01  3.00000000E-01  1.00000000E-01
                      -3.50000000E-01  3.50000000E-01  1.00000000E-01
                      -3.00000000E-01  3.50000000E-01  1.00000000E-01
                      -2.50000000E-01  3.50000000E-01  1.00000000E-01
                      -4.00000000E-01  4.00000000E-01  1.00000000E-01
                      -3.50000000E-01  4.00000000E-01  1.00000000E-01
                      -3.00000000E-01  4.00000000E-01  1.00000000E-01
                      -2.50000000E-01  4.00000000E-01  1.00000000E-01
                      -4.50000000E-01  4.50000000E-01  1.00000000E-01
                      -4.00000000E-01  4.50000000E-01  1.00000000E-01
                      -3.50000000E-01  4.50000000E-01  1.00000000E-01
                      -3.00000000E-01  4.50000000E-01  1.00000000E-01
                       5.00000000E-01  5.00000000E-01  1.00000000E-01
                      -4.50000000E-01  5.00000000E-01  1.00000000E-01
                      -4.00000000E-01  5.00000000E-01  1.00000000E-01
                      -3.50000000E-01  5.00000000E-01  1.00000000E-01
                      -3.00000000E-01  5.00000000E-01  1.00000000E-01
                      -4.50000000E-01 -4.50000000E-01  1.00000000E-01
                      -4.00000000E-01 -4.50000000E-01  1.00000000E-01
                      -3.50000000E-01 -4.50000000E-01  1.00000000E-01
                      -4.00000000E-01 -4.00000000E-01  1.00000000E-01
                      -3.50000000E-01 -4.00000000E-01  1.00000000E-01
                       1.50000000E-01  1.50000000E-01  1.50000000E-01
                       2.00000000E-01  1.50000000E-01  1.50000000E-01
                       2.50000000E-01  1.50000000E-01  1.50000000E-01
                       3.00000000E-01  1.50000000E-01  1.50000000E-01
                       3.50000000E-01  1.50000000E-01  1.50000000E-01
                      -1.50000000E-01  1.50000000E-01  1.50000000E-01
                       2.00000000E-01  2.00000000E-01  1.50000000E-01
                       2.50000000E-01  2.00000000E-01  1.50000000E-01
                       3.00000000E-01  2.00000000E-01  1.50000000E-01
                      -2.00000000E-01  2.00000000E-01  1.50000000E-01
                       2.50000000E-01  2.50000000E-01  1.50000000E-01
                       3.00000000E-01  2.50000000E-01  1.50000000E-01
                      -2.50000000E-01  2.50000000E-01  1.50000000E-01
                      -2.00000000E-01  2.50000000E-01  1.50000000E-01
                      -3.00000000E-01  3.00000000E-01  1.50000000E-01
                      -2.50000000E-01  3.00000000E-01  1.50000000E-01
                      -3.50000000E-01  3.50000000E-01  1.50000000E-01
                      -3.00000000E-01  3.50000000E-01  1.50000000E-01
                      -2.50000000E-01  3.50000000E-01  1.50000000E-01
                      -4.00000000E-01  4.00000000E-01  1.50000000E-01
                      -3.50000000E-01  4.00000000E-01  1.50000000E-01
                      -3.00000000E-01  4.00000000E-01  1.50000000E-01
                      -4.50000000E-01  4.50000000E-01  1.50000000E-01
                      -4.00000000E-01  4.50000000E-01  1.50000000E-01
                      -3.50000000E-01  4.50000000E-01  1.50000000E-01
                      -3.00000000E-01  4.50000000E-01  1.50000000E-01
                       5.00000000E-01  5.00000000E-01  1.50000000E-01
                      -4.50000000E-01  5.00000000E-01  1.50000000E-01
                      -4.00000000E-01  5.00000000E-01  1.50000000E-01
                      -3.50000000E-01  5.00000000E-01  1.50000000E-01
                      -4.50000000E-01 -4.50000000E-01  1.50000000E-01
                      -4.00000000E-01 -4.50000000E-01  1.50000000E-01
                      -3.50000000E-01 -4.50000000E-01  1.50000000E-01
                      -4.00000000E-01 -4.00000000E-01  1.50000000E-01
                       2.00000000E-01  2.00000000E-01  2.00000000E-01
                       2.50000000E-01  2.00000000E-01  2.00000000E-01
                       3.00000000E-01  2.00000000E-01  2.00000000E-01
                      -2.00000000E-01  2.00000000E-01  2.00000000E-01
                       2.50000000E-01  2.50000000E-01  2.00000000E-01
                      -2.50000000E-01  2.50000000E-01  2.00000000E-01
                      -3.00000000E-01  3.00000000E-01  2.00000000E-01
                      -2.50000000E-01  3.00000000E-01  2.00000000E-01
                      -3.50000000E-01  3.50000000E-01  2.00000000E-01
                      -3.00000000E-01  3.50000000E-01  2.00000000E-01
                      -4.00000000E-01  4.00000000E-01  2.00000000E-01
                      -3.50000000E-01  4.00000000E-01  2.00000000E-01
                      -3.00000000E-01  4.00000000E-01  2.00000000E-01
                      -4.50000000E-01  4.50000000E-01  2.00000000E-01
                      -4.00000000E-01  4.50000000E-01  2.00000000E-01
                      -3.50000000E-01  4.50000000E-01  2.00000000E-01
                       5.00000000E-01  5.00000000E-01  2.00000000E-01
                      -4.50000000E-01  5.00000000E-01  2.00000000E-01
                      -4.00000000E-01  5.00000000E-01  2.00000000E-01
                      -3.50000000E-01  5.00000000E-01  2.00000000E-01
                      -4.50000000E-01 -4.50000000E-01  2.00000000E-01
                      -4.00000000E-01 -4.50000000E-01  2.00000000E-01
                      -4.00000000E-01 -4.00000000E-01  2.00000000E-01
                       2.50000000E-01  2.50000000E-01  2.50000000E-01
                      -2.50000000E-01  2.50000000E-01  2.50000000E-01
                      -3.00000000E-01  3.00000000E-01  2.50000000E-01
                      -3.50000000E-01  3.50000000E-01  2.50000000E-01
                      -3.00000000E-01  3.50000000E-01  2.50000000E-01
                      -4.00000000E-01  4.00000000E-01  2.50000000E-01
                      -3.50000000E-01  4.00000000E-01  2.50000000E-01
                      -4.50000000E-01  4.50000000E-01  2.50000000E-01
                      -4.00000000E-01  4.50000000E-01  2.50000000E-01
                      -3.50000000E-01  4.50000000E-01  2.50000000E-01
                       5.00000000E-01  5.00000000E-01  2.50000000E-01
                      -4.50000000E-01  5.00000000E-01  2.50000000E-01
                      -4.00000000E-01  5.00000000E-01  2.50000000E-01
                      -4.50000000E-01 -4.50000000E-01  2.50000000E-01
                      -4.00000000E-01 -4.50000000E-01  2.50000000E-01
                      -3.00000000E-01  3.00000000E-01  3.00000000E-01
                      -3.50000000E-01  3.50000000E-01  3.00000000E-01
                      -4.00000000E-01  4.00000000E-01  3.00000000E-01
                      -3.50000000E-01  4.00000000E-01  3.00000000E-01
                      -4.50000000E-01  4.50000000E-01  3.00000000E-01
                      -4.00000000E-01  4.50000000E-01  3.00000000E-01
                       5.00000000E-01  5.00000000E-01  3.00000000E-01
                      -4.50000000E-01  5.00000000E-01  3.00000000E-01
                      -4.00000000E-01  5.00000000E-01  3.00000000E-01
                      -4.50000000E-01 -4.50000000E-01  3.00000000E-01
                      -3.50000000E-01  3.50000000E-01  3.50000000E-01
                      -4.00000000E-01  4.00000000E-01  3.50000000E-01
                      -4.50000000E-01  4.50000000E-01  3.50000000E-01
                      -4.00000000E-01  4.50000000E-01  3.50000000E-01
                       5.00000000E-01  5.00000000E-01  3.50000000E-01
                      -4.50000000E-01  5.00000000E-01  3.50000000E-01
                      -4.50000000E-01 -4.50000000E-01  3.50000000E-01
                      -4.00000000E-01  4.00000000E-01  4.00000000E-01
                      -4.50000000E-01  4.50000000E-01  4.00000000E-01
                       5.00000000E-01  5.00000000E-01  4.00000000E-01
                      -4.50000000E-01  5.00000000E-01  4.00000000E-01
                      -4.50000000E-01  4.50000000E-01  4.50000000E-01
                       5.00000000E-01  5.00000000E-01  4.50000000E-01
                       5.00000000E-01  5.00000000E-01  5.00000000E-01
          kptrlen      1.38288546E+02
         kptrlatt     20  0  0   0 20  0   0  0 20
P           mkmem           4
            natom           1
            nband          60
           ndtset           1
          nfreqsp        5600
            ngfft          16      16      16
           nkptgw         256
             nkpt         256
          npwsigx         177
           npwwfn         177
          nshsigx          11
           nshwfn          11
             nsym          48
           ntypat           1
              occ      1.000000  0.000000  0.000000  0.000000  0.000000  0.000000
                       0.000000  0.000000  0.000000  0.000000  0.000000  0.000000
                       0.000000  0.000000  0.000000  0.000000  0.000000  0.000000
                       0.000000  0.000000  0.000000  0.000000  0.000000  0.000000
                       0.000000  0.000000  0.000000  0.000000  0.000000  0.000000
                       0.000000  0.000000  0.000000  0.000000  0.000000  0.000000
                       0.000000  0.000000  0.000000  0.000000  0.000000  0.000000
                       0.000000  0.000000  0.000000  0.000000  0.000000  0.000000
                       0.000000  0.000000  0.000000  0.000000  0.000000  0.000000
                       0.000000  0.000000  0.000000  0.000000  0.000000  0.000000
                       1.000000  0.000000  0.000000  0.000000  0.000000  0.000000
                       0.000000  0.000000  0.000000  0.000000  0.000000  0.000000
                       0.000000  0.000000  0.000000  0.000000  0.000000  0.000000
                       0.000000  0.000000  0.000000  0.000000  0.000000  0.000000
                       0.000000  0.000000  0.000000  0.000000  0.000000  0.000000
                       0.000000  0.000000  0.000000  0.000000  0.000000  0.000000
                       0.000000  0.000000  0.000000  0.000000  0.000000  0.000000
                       0.000000  0.000000  0.000000  0.000000  0.000000  0.000000
                       0.000000  0.000000  0.000000  0.000000  0.000000  0.000000
                       0.000000  0.000000  0.000000  0.000000  0.000000  0.000000
                       1.000000  0.000000  0.000000  0.000000  0.000000  0.000000
                       0.000000  0.000000  0.000000  0.000000  0.000000  0.000000
                       0.000000  0.000000  0.000000  0.000000  0.000000  0.000000
                       0.000000  0.000000  0.000000  0.000000  0.000000  0.000000
                       0.000000  0.000000  0.000000  0.000000  0.000000  0.000000
                       0.000000  0.000000  0.000000  0.000000  0.000000  0.000000
                       0.000000  0.000000  0.000000  0.000000  0.000000  0.000000
                       0.000000  0.000000  0.000000  0.000000  0.000000  0.000000
                       0.000000  0.000000  0.000000  0.000000  0.000000  0.000000
                       0.000000  0.000000  0.000000  0.000000  0.000000  0.000000
                       1.000000  0.000000  0.000000  0.000000  0.000000  0.000000
                       0.000000  0.000000  0.000000  0.000000  0.000000  0.000000
                       0.000000  0.000000  0.000000  0.000000  0.000000  0.000000
                       0.000000  0.000000  0.000000  0.000000  0.000000  0.000000
                       0.000000  0.000000  0.000000  0.000000  0.000000  0.000000
                       0.000000  0.000000  0.000000  0.000000  0.000000  0.000000
                       0.000000  0.000000  0.000000  0.000000  0.000000  0.000000
                       0.000000  0.000000  0.000000  0.000000  0.000000  0.000000
                       0.000000  0.000000  0.000000  0.000000  0.000000  0.000000
                       0.000000  0.000000  0.000000  0.000000  0.000000  0.000000
                       1.000000  0.000000  0.000000  0.000000  0.000000  0.000000
                       0.000000  0.000000  0.000000  0.000000  0.000000  0.000000
                       0.000000  0.000000  0.000000  0.000000  0.000000  0.000000
                       0.000000  0.000000  0.000000  0.000000  0.000000  0.000000
                       0.000000  0.000000  0.000000  0.000000  0.000000  0.000000
                       0.000000  0.000000  0.000000  0.000000  0.000000  0.000000
                       0.000000  0.000000  0.000000  0.000000  0.000000  0.000000
                       0.000000  0.000000  0.000000  0.000000  0.000000  0.000000
                       0.000000  0.000000  0.000000  0.000000  0.000000  0.000000
                       0.000000  0.000000  0.000000  0.000000  0.000000  0.000000
                       1.000000  0.000000  0.000000  0.000000  0.000000  0.000000
                       0.000000  0.000000  0.000000  0.000000  0.000000  0.000000
                       0.000000  0.000000  0.000000  0.000000  0.000000  0.000000
                       0.000000  0.000000  0.000000  0.000000  0.000000  0.000000
                       0.000000  0.000000  0.000000  0.000000  0.000000  0.000000
                       0.000000  0.000000  0.000000  0.000000  0.000000  0.000000
                       0.000000  0.000000  0.000000  0.000000  0.000000  0.000000
                       0.000000  0.000000  0.000000  0.000000  0.000000  0.000000
                       0.000000  0.000000  0.000000  0.000000  0.000000  0.000000
                       0.000000  0.000000  0.000000  0.000000  0.000000  0.000000
                       1.000000  0.000000  0.000000  0.000000  0.000000  0.000000
                       0.000000  0.000000  0.000000  0.000000  0.000000  0.000000
                       0.000000  0.000000  0.000000  0.000000  0.000000  0.000000
                       0.000000  0.000000  0.000000  0.000000  0.000000  0.000000
                       0.000000  0.000000  0.000000  0.000000  0.000000  0.000000
                       0.000000  0.000000  0.000000  0.000000  0.000000  0.000000
                       0.000000  0.000000  0.000000  0.000000  0.000000  0.000000
                       0.000000  0.000000  0.000000  0.000000  0.000000  0.000000
                       0.000000  0.000000  0.000000  0.000000  0.000000  0.000000
                       0.000000  0.000000  0.000000  0.000000  0.000000  0.000000
                       1.000000  0.000000  0.000000  0.000000  0.000000  0.000000
                       0.000000  0.000000  0.000000  0.000000  0.000000  0.000000
                       0.000000  0.000000  0.000000  0.000000  0.000000  0.000000
                       0.000000  0.000000  0.000000  0.000000  0.000000  0.000000
                       0.000000  0.000000  0.000000  0.000000  0.000000  0.000000
                       0.000000  0.000000  0.000000  0.000000  0.000000  0.000000
                       0.000000  0.000000  0.000000  0.000000  0.000000  0.000000
                       0.000000  0.000000  0.000000  0.000000  0.000000  0.000000
                       0.000000  0.000000  0.000000  0.000000  0.000000  0.000000
                       0.000000  0.000000  0.000000  0.000000  0.000000  0.000000
                       1.000000  0.000000  0.000000  0.000000  0.000000  0.000000
                       0.000000  0.000000  0.000000  0.000000  0.000000  0.000000
                       0.000000  0.000000  0.000000  0.000000  0.000000  0.000000
                       0.000000  0.000000  0.000000  0.000000  0.000000  0.000000
                       0.000000  0.000000  0.000000  0.000000  0.000000  0.000000
                       0.000000  0.000000  0.000000  0.000000  0.000000  0.000000
                       0.000000  0.000000  0.000000  0.000000  0.000000  0.000000
                       0.000000  0.000000  0.000000  0.000000  0.000000  0.000000
                       0.000000  0.000000  0.000000  0.000000  0.000000  0.000000
                       0.000000  0.000000  0.000000  0.000000  0.000000  0.000000
                       1.000000  0.000000  0.000000  0.000000  0.000000  0.000000
                       0.000000  0.000000  0.000000  0.000000  0.000000  0.000000
                       0.000000  0.000000  0.000000  0.000000  0.000000  0.000000
                       0.000000  0.000000  0.000000  0.000000  0.000000  0.000000
                       0.000000  0.000000  0.000000  0.000000  0.000000  0.000000
                       0.000000  0.000000  0.000000  0.000000  0.000000  0.000000
                       0.000000  0.000000  0.000000  0.000000  0.000000  0.000000
                       0.000000  0.000000  0.000000  0.000000  0.000000  0.000000
                       0.000000  0.000000  0.000000  0.000000  0.000000  0.000000
                       0.000000  0.000000  0.000000  0.000000  0.000000  0.000000
                       1.000000  0.000000  0.000000  0.000000  0.000000  0.000000
                       0.000000  0.000000  0.000000  0.000000  0.000000  0.000000
                       0.000000  0.000000  0.000000  0.000000  0.000000  0.000000
                       0.000000  0.000000  0.000000  0.000000  0.000000  0.000000
                       0.000000  0.000000  0.000000  0.000000  0.000000  0.000000
                       0.000000  0.000000  0.000000  0.000000  0.000000  0.000000
                       0.000000  0.000000  0.000000  0.000000  0.000000  0.000000
                       0.000000  0.000000  0.000000  0.000000  0.000000  0.000000
                       0.000000  0.000000  0.000000  0.000000  0.000000  0.000000
                       0.000000  0.000000  0.000000  0.000000  0.000000  0.000000
                       1.000000  0.000000  0.000000  0.000000  0.000000  0.000000
                       0.000000  0.000000  0.000000  0.000000  0.000000  0.000000
                       0.000000  0.000000  0.000000  0.000000  0.000000  0.000000
                       0.000000  0.000000  0.000000  0.000000  0.000000  0.000000
                       0.000000  0.000000  0.000000  0.000000  0.000000  0.000000
                       0.000000  0.000000  0.000000  0.000000  0.000000  0.000000
                       0.000000  0.000000  0.000000  0.000000  0.000000  0.000000
                       0.000000  0.000000  0.000000  0.000000  0.000000  0.000000
                       0.000000  0.000000  0.000000  0.000000  0.000000  0.000000
                       0.000000  0.000000  0.000000  0.000000  0.000000  0.000000
                       1.000000  0.000000  0.000000  0.000000  0.000000  0.000000
                       0.000000  0.000000  0.000000  0.000000  0.000000  0.000000
                       0.000000  0.000000  0.000000  0.000000  0.000000  0.000000
                       0.000000  0.000000  0.000000  0.000000  0.000000  0.000000
                       0.000000  0.000000  0.000000  0.000000  0.000000  0.000000
                       0.000000  0.000000  0.000000  0.000000  0.000000  0.000000
                       0.000000  0.000000  0.000000  0.000000  0.000000  0.000000
                       0.000000  0.000000  0.000000  0.000000  0.000000  0.000000
                       0.000000  0.000000  0.000000  0.000000  0.000000  0.000000
                       0.000000  0.000000  0.000000  0.000000  0.000000  0.000000
                       1.000000  0.000000  0.000000  0.000000  0.000000  0.000000
                       0.000000  0.000000  0.000000  0.000000  0.000000  0.000000
                       0.000000  0.000000  0.000000  0.000000  0.000000  0.000000
                       0.000000  0.000000  0.000000  0.000000  0.000000  0.000000
                       0.000000  0.000000  0.000000  0.000000  0.000000  0.000000
                       0.000000  0.000000  0.000000  0.000000  0.000000  0.000000
                       0.000000  0.000000  0.000000  0.000000  0.000000  0.000000
                       0.000000  0.000000  0.000000  0.000000  0.000000  0.000000
                       0.000000  0.000000  0.000000  0.000000  0.000000  0.000000
                       0.000000  0.000000  0.000000  0.000000  0.000000  0.000000
                       1.000000  0.000000  0.000000  0.000000  0.000000  0.000000
                       0.000000  0.000000  0.000000  0.000000  0.000000  0.000000
                       0.000000  0.000000  0.000000  0.000000  0.000000  0.000000
                       0.000000  0.000000  0.000000  0.000000  0.000000  0.000000
                       0.000000  0.000000  0.000000  0.000000  0.000000  0.000000
                       0.000000  0.000000  0.000000  0.000000  0.000000  0.000000
                       0.000000  0.000000  0.000000  0.000000  0.000000  0.000000
                       0.000000  0.000000  0.000000  0.000000  0.000000  0.000000
                       0.000000  0.000000  0.000000  0.000000  0.000000  0.000000
                       0.000000  0.000000  0.000000  0.000000  0.000000  0.000000
                       1.000000  0.000000  0.000000  0.000000  0.000000  0.000000
                       0.000000  0.000000  0.000000  0.000000  0.000000  0.000000
                       0.000000  0.000000  0.000000  0.000000  0.000000  0.000000
                       0.000000  0.000000  0.000000  0.000000  0.000000  0.000000
                       0.000000  0.000000  0.000000  0.000000  0.000000  0.000000
                       0.000000  0.000000  0.000000  0.000000  0.000000  0.000000
                       0.000000  0.000000  0.000000  0.000000  0.000000  0.000000
                       0.000000  0.000000  0.000000  0.000000  0.000000  0.000000
                       0.000000  0.000000  0.000000  0.000000  0.000000  0.000000
                       0.000000  0.000000  0.000000  0.000000  0.000000  0.000000
                       1.000000  0.000000  0.000000  0.000000  0.000000  0.000000
                       0.000000  0.000000  0.000000  0.000000  0.000000  0.000000
                       0.000000  0.000000  0.000000  0.000000  0.000000  0.000000
                       0.000000  0.000000  0.000000  0.000000  0.000000  0.000000
                       0.000000  0.000000  0.000000  0.000000  0.000000  0.000000
                       0.000000  0.000000  0.000000  0.000000  0.000000  0.000000
                       0.000000  0.000000  0.000000  0.000000  0.000000  0.000000
                       0.000000  0.000000  0.000000  0.000000  0.000000  0.000000
                       0.000000  0.000000  0.000000  0.000000  0.000000  0.000000
                       0.000000  0.000000  0.000000  0.000000  0.000000  0.000000
                       1.000000  0.000000  0.000000  0.000000  0.000000  0.000000
                       0.000000  0.000000  0.000000  0.000000  0.000000  0.000000
                       0.000000  0.000000  0.000000  0.000000  0.000000  0.000000
                       0.000000  0.000000  0.000000  0.000000  0.000000  0.000000
                       0.000000  0.000000  0.000000  0.000000  0.000000  0.000000
                       0.000000  0.000000  0.000000  0.000000  0.000000  0.000000
                       0.000000  0.000000  0.000000  0.000000  0.000000  0.000000
                       0.000000  0.000000  0.000000  0.000000  0.000000  0.000000
                       0.000000  0.000000  0.000000  0.000000  0.000000  0.000000
                       0.000000  0.000000  0.000000  0.000000  0.000000  0.000000
                       1.000000  0.000000  0.000000  0.000000  0.000000  0.000000
                       0.000000  0.000000  0.000000  0.000000  0.000000  0.000000
                       0.000000  0.000000  0.000000  0.000000  0.000000  0.000000
                       0.000000  0.000000  0.000000  0.000000  0.000000  0.000000
                       0.000000  0.000000  0.000000  0.000000  0.000000  0.000000
                       0.000000  0.000000  0.000000  0.000000  0.000000  0.000000
                       0.000000  0.000000  0.000000  0.000000  0.000000  0.000000
                       0.000000  0.000000  0.000000  0.000000  0.000000  0.000000
                       0.000000  0.000000  0.000000  0.000000  0.000000  0.000000
                       0.000000  0.000000  0.000000  0.000000  0.000000  0.000000
                       1.000000  0.000000  0.000000  0.000000  0.000000  0.000000
                       0.000000  0.000000  0.000000  0.000000  0.000000  0.000000
                       0.000000  0.000000  0.000000  0.000000  0.000000  0.000000
                       0.000000  0.000000  0.000000  0.000000  0.000000  0.000000
                       0.000000  0.000000  0.000000  0.000000  0.000000  0.000000
                       0.000000  0.000000  0.000000  0.000000  0.000000  0.000000
                       0.000000  0.000000  0.000000  0.000000  0.000000  0.000000
                       0.000000  0.000000  0.000000  0.000000  0.000000  0.000000
                       0.000000  0.000000  0.000000  0.000000  0.000000  0.000000
                       0.000000  0.000000  0.000000  0.000000  0.000000  0.000000
                       1.000000  0.000000  0.000000  0.000000  0.000000  0.000000
                       0.000000  0.000000  0.000000  0.000000  0.000000  0.000000
                       0.000000  0.000000  0.000000  0.000000  0.000000  0.000000
                       0.000000  0.000000  0.000000  0.000000  0.000000  0.000000
                       0.000000  0.000000  0.000000  0.000000  0.000000  0.000000
                       0.000000  0.000000  0.000000  0.000000  0.000000  0.000000
                       0.000000  0.000000  0.000000  0.000000  0.000000  0.000000
                       0.000000  0.000000  0.000000  0.000000  0.000000  0.000000
                       0.000000  0.000000  0.000000  0.000000  0.000000  0.000000
                       0.000000  0.000000  0.000000  0.000000  0.000000  0.000000
                       1.000000  0.000000  0.000000  0.000000  0.000000  0.000000
                       0.000000  0.000000  0.000000  0.000000  0.000000  0.000000
                       0.000000  0.000000  0.000000  0.000000  0.000000  0.000000
                       0.000000  0.000000  0.000000  0.000000  0.000000  0.000000
                       0.000000  0.000000  0.000000  0.000000  0.000000  0.000000
                       0.000000  0.000000  0.000000  0.000000  0.000000  0.000000
                       0.000000  0.000000  0.000000  0.000000  0.000000  0.000000
                       0.000000  0.000000  0.000000  0.000000  0.000000  0.000000
                       0.000000  0.000000  0.000000  0.000000  0.000000  0.000000
                       0.000000  0.000000  0.000000  0.000000  0.000000  0.000000
                       1.000000  0.000000  0.000000  0.000000  0.000000  0.000000
                       0.000000  0.000000  0.000000  0.000000  0.000000  0.000000
                       0.000000  0.000000  0.000000  0.000000  0.000000  0.000000
                       0.000000  0.000000  0.000000  0.000000  0.000000  0.000000
                       0.000000  0.000000  0.000000  0.000000  0.000000  0.000000
                       0.000000  0.000000  0.000000  0.000000  0.000000  0.000000
                       0.000000  0.000000  0.000000  0.000000  0.000000  0.000000
                       0.000000  0.000000  0.000000  0.000000  0.000000  0.000000
                       0.000000  0.000000  0.000000  0.000000  0.000000  0.000000
                       0.000000  0.000000  0.000000  0.000000  0.000000  0.000000
                       1.000000  0.000000  0.000000  0.000000  0.000000  0.000000
                       0.000000  0.000000  0.000000  0.000000  0.000000  0.000000
                       0.000000  0.000000  0.000000  0.000000  0.000000  0.000000
                       0.000000  0.000000  0.000000  0.000000  0.000000  0.000000
                       0.000000  0.000000  0.000000  0.000000  0.000000  0.000000
                       0.000000  0.000000  0.000000  0.000000  0.000000  0.000000
                       0.000000  0.000000  0.000000  0.000000  0.000000  0.000000
                       0.000000  0.000000  0.000000  0.000000  0.000000  0.000000
                       0.000000  0.000000  0.000000  0.000000  0.000000  0.000000
                       0.000000  0.000000  0.000000  0.000000  0.000000  0.000000
                       1.000000  0.000000  0.000000  0.000000  0.000000  0.000000
                       0.000000  0.000000  0.000000  0.000000  0.000000  0.000000
                       0.000000  0.000000  0.000000  0.000000  0.000000  0.000000
                       0.000000  0.000000  0.000000  0.000000  0.000000  0.000000
                       0.000000  0.000000  0.000000  0.000000  0.000000  0.000000
                       0.000000  0.000000  0.000000  0.000000  0.000000  0.000000
                       0.000000  0.000000  0.000000  0.000000  0.000000  0.000000
                       0.000000  0.000000  0.000000  0.000000  0.000000  0.000000
                       0.000000  0.000000  0.000000  0.000000  0.000000  0.000000
                       0.000000  0.000000  0.000000  0.000000  0.000000  0.000000
                       1.000000  0.000000  0.000000  0.000000  0.000000  0.000000
                       0.000000  0.000000  0.000000  0.000000  0.000000  0.000000
                       0.000000  0.000000  0.000000  0.000000  0.000000  0.000000
                       0.000000  0.000000  0.000000  0.000000  0.000000  0.000000
                       0.000000  0.000000  0.000000  0.000000  0.000000  0.000000
                       0.000000  0.000000  0.000000  0.000000  0.000000  0.000000
                       0.000000  0.000000  0.000000  0.000000  0.000000  0.000000
                       0.000000  0.000000  0.000000  0.000000  0.000000  0.000000
                       0.000000  0.000000  0.000000  0.000000  0.000000  0.000000
                       0.000000  0.000000  0.000000  0.000000  0.000000  0.000000
                       1.000000  0.000000  0.000000  0.000000  0.000000  0.000000
                       0.000000  0.000000  0.000000  0.000000  0.000000  0.000000
                       0.000000  0.000000  0.000000  0.000000  0.000000  0.000000
                       0.000000  0.000000  0.000000  0.000000  0.000000  0.000000
                       0.000000  0.000000  0.000000  0.000000  0.000000  0.000000
                       0.000000  0.000000  0.000000  0.000000  0.000000  0.000000
                       0.000000  0.000000  0.000000  0.000000  0.000000  0.000000
                       0.000000  0.000000  0.000000  0.000000  0.000000  0.000000
                       0.000000  0.000000  0.000000  0.000000  0.000000  0.000000
                       0.000000  0.000000  0.000000  0.000000  0.000000  0.000000
                       1.000000  0.000000  0.000000  0.000000  0.000000  0.000000
                       0.000000  0.000000  0.000000  0.000000  0.000000  0.000000
                       0.000000  0.000000  0.000000  0.000000  0.000000  0.000000
                       0.000000  0.000000  0.000000  0.000000  0.000000  0.000000
                       0.000000  0.000000  0.000000  0.000000  0.000000  0.000000
                       0.000000  0.000000  0.000000  0.000000  0.000000  0.000000
                       0.000000  0.000000  0.000000  0.000000  0.000000  0.000000
                       0.000000  0.000000  0.000000  0.000000  0.000000  0.000000
                       0.000000  0.000000  0.000000  0.000000  0.000000  0.000000
                       0.000000  0.000000  0.000000  0.000000  0.000000  0.000000
                       1.000000  0.000000  0.000000  0.000000  0.000000  0.000000
                       0.000000  0.000000  0.000000  0.000000  0.000000  0.000000
                       0.000000  0.000000  0.000000  0.000000  0.000000  0.000000
                       0.000000  0.000000  0.000000  0.000000  0.000000  0.000000
                       0.000000  0.000000  0.000000  0.000000  0.000000  0.000000
                       0.000000  0.000000  0.000000  0.000000  0.000000  0.000000
                       0.000000  0.000000  0.000000  0.000000  0.000000  0.000000
                       0.000000  0.000000  0.000000  0.000000  0.000000  0.000000
                       0.000000  0.000000  0.000000  0.000000  0.000000  0.000000
                       0.000000  0.000000  0.000000  0.000000  0.000000  0.000000
                       1.000000  0.000000  0.000000  0.000000  0.000000  0.000000
                       0.000000  0.000000  0.000000  0.000000  0.000000  0.000000
                       0.000000  0.000000  0.000000  0.000000  0.000000  0.000000
                       0.000000  0.000000  0.000000  0.000000  0.000000  0.000000
                       0.000000  0.000000  0.000000  0.000000  0.000000  0.000000
                       0.000000  0.000000  0.000000  0.000000  0.000000  0.000000
                       0.000000  0.000000  0.000000  0.000000  0.000000  0.000000
                       0.000000  0.000000  0.000000  0.000000  0.000000  0.000000
                       0.000000  0.000000  0.000000  0.000000  0.000000  0.000000
                       0.000000  0.000000  0.000000  0.000000  0.000000  0.000000
                       1.000000  0.000000  0.000000  0.000000  0.000000  0.000000
                       0.000000  0.000000  0.000000  0.000000  0.000000  0.000000
                       0.000000  0.000000  0.000000  0.000000  0.000000  0.000000
                       0.000000  0.000000  0.000000  0.000000  0.000000  0.000000
                       0.000000  0.000000  0.000000  0.000000  0.000000  0.000000
                       0.000000  0.000000  0.000000  0.000000  0.000000  0.000000
                       0.000000  0.000000  0.000000  0.000000  0.000000  0.000000
                       0.000000  0.000000  0.000000  0.000000  0.000000  0.000000
                       0.000000  0.000000  0.000000  0.000000  0.000000  0.000000
                       0.000000  0.000000  0.000000  0.000000  0.000000  0.000000
                       1.000000  0.000000  0.000000  0.000000  0.000000  0.000000
                       0.000000  0.000000  0.000000  0.000000  0.000000  0.000000
                       0.000000  0.000000  0.000000  0.000000  0.000000  0.000000
                       0.000000  0.000000  0.000000  0.000000  0.000000  0.000000
                       0.000000  0.000000  0.000000  0.000000  0.000000  0.000000
                       0.000000  0.000000  0.000000  0.000000  0.000000  0.000000
                       0.000000  0.000000  0.000000  0.000000  0.000000  0.000000
                       0.000000  0.000000  0.000000  0.000000  0.000000  0.000000
                       0.000000  0.000000  0.000000  0.000000  0.000000  0.000000
                       0.000000  0.000000  0.000000  0.000000  0.000000  0.000000
                       1.000000  0.000000  0.000000  0.000000  0.000000  0.000000
                       0.000000  0.000000  0.000000  0.000000  0.000000  0.000000
                       0.000000  0.000000  0.000000  0.000000  0.000000  0.000000
                       0.000000  0.000000  0.000000  0.000000  0.000000  0.000000
                       0.000000  0.000000  0.000000  0.000000  0.000000  0.000000
                       0.000000  0.000000  0.000000  0.000000  0.000000  0.000000
                       0.000000  0.000000  0.000000  0.000000  0.000000  0.000000
                       0.000000  0.000000  0.000000  0.000000  0.000000  0.000000
                       0.000000  0.000000  0.000000  0.000000  0.000000  0.000000
                       0.000000  0.000000  0.000000  0.000000  0.000000  0.000000
                       1.000000  0.000000  0.000000  0.000000  0.000000  0.000000
                       0.000000  0.000000  0.000000  0.000000  0.000000  0.000000
                       0.000000  0.000000  0.000000  0.000000  0.000000  0.000000
                       0.000000  0.000000  0.000000  0.000000  0.000000  0.000000
                       0.000000  0.000000  0.000000  0.000000  0.000000  0.000000
                       0.000000  0.000000  0.000000  0.000000  0.000000  0.000000
                       0.000000  0.000000  0.000000  0.000000  0.000000  0.000000
                       0.000000  0.000000  0.000000  0.000000  0.000000  0.000000
                       0.000000  0.000000  0.000000  0.000000  0.000000  0.000000
                       0.000000  0.000000  0.000000  0.000000  0.000000  0.000000
                       1.000000  0.000000  0.000000  0.000000  0.000000  0.000000
                       0.000000  0.000000  0.000000  0.000000  0.000000  0.000000
                       0.000000  0.000000  0.000000  0.000000  0.000000  0.000000
                       0.000000  0.000000  0.000000  0.000000  0.000000  0.000000
                       0.000000  0.000000  0.000000  0.000000  0.000000  0.000000
                       0.000000  0.000000  0.000000  0.000000  0.000000  0.000000
                       0.000000  0.000000  0.000000  0.000000  0.000000  0.000000
                       0.000000  0.000000  0.000000  0.000000  0.000000  0.000000
                       0.000000  0.000000  0.000000  0.000000  0.000000  0.000000
                       0.000000  0.000000  0.000000  0.000000  0.000000  0.000000
                       1.000000  0.000000  0.000000  0.000000  0.000000  0.000000
                       0.000000  0.000000  0.000000  0.000000  0.000000  0.000000
                       0.000000  0.000000  0.000000  0.000000  0.000000  0.000000
                       0.000000  0.000000  0.000000  0.000000  0.000000  0.000000
                       0.000000  0.000000  0.000000  0.000000  0.000000  0.000000
                       0.000000  0.000000  0.000000  0.000000  0.000000  0.000000
                       0.000000  0.000000  0.000000  0.000000  0.000000  0.000000
                       0.000000  0.000000  0.000000  0.000000  0.000000  0.000000
                       0.000000  0.000000  0.000000  0.000000  0.000000  0.000000
                       0.000000  0.000000  0.000000  0.000000  0.000000  0.000000
                       1.000000  0.000000  0.000000  0.000000  0.000000  0.000000
                       0.000000  0.000000  0.000000  0.000000  0.000000  0.000000
                       0.000000  0.000000  0.000000  0.000000  0.000000  0.000000
                       0.000000  0.000000  0.000000  0.000000  0.000000  0.000000
                       0.000000  0.000000  0.000000  0.000000  0.000000  0.000000
                       0.000000  0.000000  0.000000  0.000000  0.000000  0.000000
                       0.000000  0.000000  0.000000  0.000000  0.000000  0.000000
                       0.000000  0.000000  0.000000  0.000000  0.000000  0.000000
                       0.000000  0.000000  0.000000  0.000000  0.000000  0.000000
                       0.000000  0.000000  0.000000  0.000000  0.000000  0.000000
                       1.000000  0.000000  0.000000  0.000000  0.000000  0.000000
                       0.000000  0.000000  0.000000  0.000000  0.000000  0.000000
                       0.000000  0.000000  0.000000  0.000000  0.000000  0.000000
                       0.000000  0.000000  0.000000  0.000000  0.000000  0.000000
                       0.000000  0.000000  0.000000  0.000000  0.000000  0.000000
                       0.000000  0.000000  0.000000  0.000000  0.000000  0.000000
                       0.000000  0.000000  0.000000  0.000000  0.000000  0.000000
                       0.000000  0.000000  0.000000  0.000000  0.000000  0.000000
                       0.000000  0.000000  0.000000  0.000000  0.000000  0.000000
                       0.000000  0.000000  0.000000  0.000000  0.000000  0.000000
                       1.000000  0.000000  0.000000  0.000000  0.000000  0.000000
                       0.000000  0.000000  0.000000  0.000000  0.000000  0.000000
                       0.000000  0.000000  0.000000  0.000000  0.000000  0.000000
                       0.000000  0.000000  0.000000  0.000000  0.000000  0.000000
                       0.000000  0.000000  0.000000  0.000000  0.000000  0.000000
                       0.000000  0.000000  0.000000  0.000000  0.000000  0.000000
                       0.000000  0.000000  0.000000  0.000000  0.000000  0.000000
                       0.000000  0.000000  0.000000  0.000000  0.000000  0.000000
                       0.000000  0.000000  0.000000  0.000000  0.000000  0.000000
                       0.000000  0.000000  0.000000  0.000000  0.000000  0.000000
                       1.000000  0.000000  0.000000  0.000000  0.000000  0.000000
                       0.000000  0.000000  0.000000  0.000000  0.000000  0.000000
                       0.000000  0.000000  0.000000  0.000000  0.000000  0.000000
                       0.000000  0.000000  0.000000  0.000000  0.000000  0.000000
                       0.000000  0.000000  0.000000  0.000000  0.000000  0.000000
                       0.000000  0.000000  0.000000  0.000000  0.000000  0.000000
                       0.000000  0.000000  0.000000  0.000000  0.000000  0.000000
                       0.000000  0.000000  0.000000  0.000000  0.000000  0.000000
                       0.000000  0.000000  0.000000  0.000000  0.000000  0.000000
                       0.000000  0.000000  0.000000  0.000000  0.000000  0.000000
                       1.000000  0.000000  0.000000  0.000000  0.000000  0.000000
                       0.000000  0.000000  0.000000  0.000000  0.000000  0.000000
[...]
                       0.000000  0.000000  0.000000  0.000000  0.000000  0.000000
                       0.000000  0.000000  0.000000  0.000000  0.000000  0.000000
                       0.000000  0.000000  0.000000  0.000000  0.000000  0.000000
                       0.000000  0.000000  0.000000  0.000000  0.000000  0.000000
                       0.000000  0.000000  0.000000  0.000000  0.000000  0.000000
                       0.000000  0.000000  0.000000  0.000000  0.000000  0.000000
                       0.000000  0.000000  0.000000  0.000000  0.000000  0.000000
                       1.000000  0.000000  0.000000  0.000000  0.000000  0.000000
                       0.000000  0.000000  0.000000  0.000000  0.000000  0.000000
                       0.000000  0.000000  0.000000  0.000000  0.000000  0.000000
                       0.000000  0.000000  0.000000  0.000000  0.000000  0.000000
                       0.000000  0.000000  0.000000  0.000000  0.000000  0.000000
                       0.000000  0.000000  0.000000  0.000000  0.000000  0.000000
                       0.000000  0.000000  0.000000  0.000000  0.000000  0.000000
                       0.000000  0.000000  0.000000  0.000000  0.000000  0.000000
                       0.000000  0.000000  0.000000  0.000000  0.000000  0.000000
                       0.000000  0.000000  0.000000  0.000000  0.000000  0.000000
                       1.000000  0.000000  0.000000  0.000000  0.000000  0.000000
                       0.000000  0.000000  0.000000  0.000000  0.000000  0.000000
                       0.000000  0.000000  0.000000  0.000000  0.000000  0.000000
                       0.000000  0.000000  0.000000  0.000000  0.000000  0.000000
                       0.000000  0.000000  0.000000  0.000000  0.000000  0.000000
                       0.000000  0.000000  0.000000  0.000000  0.000000  0.000000
                       0.000000  0.000000  0.000000  0.000000  0.000000  0.000000
                       0.000000  0.000000  0.000000  0.000000  0.000000  0.000000
                       0.000000  0.000000  0.000000  0.000000  0.000000  0.000000
                       0.000000  0.000000  0.000000  0.000000  0.000000  0.000000
                       1.000000  0.000000  0.000000  0.000000  0.000000  0.000000
                       0.000000  0.000000  0.000000  0.000000  0.000000  0.000000
                       0.000000  0.000000  0.000000  0.000000  0.000000  0.000000
                       0.000000  0.000000  0.000000  0.000000  0.000000  0.000000
                       0.000000  0.000000  0.000000  0.000000  0.000000  0.000000
                       0.000000  0.000000  0.000000  0.000000  0.000000  0.000000
                       0.000000  0.000000  0.000000  0.000000  0.000000  0.000000
                       0.000000  0.000000  0.000000  0.000000  0.000000  0.000000
                       0.000000  0.000000  0.000000  0.000000  0.000000  0.000000
                       0.000000  0.000000  0.000000  0.000000  0.000000  0.000000
                       1.000000  0.000000  0.000000  0.000000  0.000000  0.000000
                       0.000000  0.000000  0.000000  0.000000  0.000000  0.000000
                       0.000000  0.000000  0.000000  0.000000  0.000000  0.000000
                       0.000000  0.000000  0.000000  0.000000  0.000000  0.000000
                       0.000000  0.000000  0.000000  0.000000  0.000000  0.000000
                       0.000000  0.000000  0.000000  0.000000  0.000000  0.000000
                       0.000000  0.000000  0.000000  0.000000  0.000000  0.000000
                       0.000000  0.000000  0.000000  0.000000  0.000000  0.000000
                       0.000000  0.000000  0.000000  0.000000  0.000000  0.000000
                       0.000000  0.000000  0.000000  0.000000  0.000000  0.000000
                       1.000000  0.000000  0.000000  0.000000  0.000000  0.000000
                       0.000000  0.000000  0.000000  0.000000  0.000000  0.000000
                       0.000000  0.000000  0.000000  0.000000  0.000000  0.000000
                       0.000000  0.000000  0.000000  0.000000  0.000000  0.000000
                       0.000000  0.000000  0.000000  0.000000  0.000000  0.000000
                       0.000000  0.000000  0.000000  0.000000  0.000000  0.000000
                       0.000000  0.000000  0.000000  0.000000  0.000000  0.000000
                       0.000000  0.000000  0.000000  0.000000  0.000000  0.000000
                       0.000000  0.000000  0.000000  0.000000  0.000000  0.000000
                       0.000000  0.000000  0.000000  0.000000  0.000000  0.000000
                       1.000000  0.000000  0.000000  0.000000  0.000000  0.000000
                       0.000000  0.000000  0.000000  0.000000  0.000000  0.000000
                       0.000000  0.000000  0.000000  0.000000  0.000000  0.000000
                       0.000000  0.000000  0.000000  0.000000  0.000000  0.000000
                       0.000000  0.000000  0.000000  0.000000  0.000000  0.000000
                       0.000000  0.000000  0.000000  0.000000  0.000000  0.000000
                       0.000000  0.000000  0.000000  0.000000  0.000000  0.000000
                       0.000000  0.000000  0.000000  0.000000  0.000000  0.000000
                       0.000000  0.000000  0.000000  0.000000  0.000000  0.000000
                       0.000000  0.000000  0.000000  0.000000  0.000000  0.000000
                       1.000000  0.000000  0.000000  0.000000  0.000000  0.000000
                       0.000000  0.000000  0.000000  0.000000  0.000000  0.000000
                       0.000000  0.000000  0.000000  0.000000  0.000000  0.000000
                       0.000000  0.000000  0.000000  0.000000  0.000000  0.000000
                       0.000000  0.000000  0.000000  0.000000  0.000000  0.000000
                       0.000000  0.000000  0.000000  0.000000  0.000000  0.000000
                       0.000000  0.000000  0.000000  0.000000  0.000000  0.000000
                       0.000000  0.000000  0.000000  0.000000  0.000000  0.000000
                       0.000000  0.000000  0.000000  0.000000  0.000000  0.000000
                       0.000000  0.000000  0.000000  0.000000  0.000000  0.000000
                       1.000000  0.000000  0.000000  0.000000  0.000000  0.000000
                       0.000000  0.000000  0.000000  0.000000  0.000000  0.000000
                       0.000000  0.000000  0.000000  0.000000  0.000000  0.000000
                       0.000000  0.000000  0.000000  0.000000  0.000000  0.000000
                       0.000000  0.000000  0.000000  0.000000  0.000000  0.000000
                       0.000000  0.000000  0.000000  0.000000  0.000000  0.000000
                       0.000000  0.000000  0.000000  0.000000  0.000000  0.000000
                       0.000000  0.000000  0.000000  0.000000  0.000000  0.000000
                       0.000000  0.000000  0.000000  0.000000  0.000000  0.000000
                       0.000000  0.000000  0.000000  0.000000  0.000000  0.000000
                       1.000000  0.000000  0.000000  0.000000  0.000000  0.000000
                       0.000000  0.000000  0.000000  0.000000  0.000000  0.000000
                       0.000000  0.000000  0.000000  0.000000  0.000000  0.000000
                       0.000000  0.000000  0.000000  0.000000  0.000000  0.000000
                       0.000000  0.000000  0.000000  0.000000  0.000000  0.000000
                       0.000000  0.000000  0.000000  0.000000  0.000000  0.000000
                       0.000000  0.000000  0.000000  0.000000  0.000000  0.000000
                       0.000000  0.000000  0.000000  0.000000  0.000000  0.000000
                       0.000000  0.000000  0.000000  0.000000  0.000000  0.000000
                       0.000000  0.000000  0.000000  0.000000  0.000000  0.000000
                       1.000000  0.000000  0.000000  0.000000  0.000000  0.000000
                       0.000000  0.000000  0.000000  0.000000  0.000000  0.000000
                       0.000000  0.000000  0.000000  0.000000  0.000000  0.000000
                       0.000000  0.000000  0.000000  0.000000  0.000000  0.000000
                       0.000000  0.000000  0.000000  0.000000  0.000000  0.000000
                       0.000000  0.000000  0.000000  0.000000  0.000000  0.000000
                       0.000000  0.000000  0.000000  0.000000  0.000000  0.000000
                       0.000000  0.000000  0.000000  0.000000  0.000000  0.000000
                       0.000000  0.000000  0.000000  0.000000  0.000000  0.000000
                       0.000000  0.000000  0.000000  0.000000  0.000000  0.000000
                       1.000000  0.000000  0.000000  0.000000  0.000000  0.000000
                       0.000000  0.000000  0.000000  0.000000  0.000000  0.000000
                       0.000000  0.000000  0.000000  0.000000  0.000000  0.000000
                       0.000000  0.000000  0.000000  0.000000  0.000000  0.000000
                       0.000000  0.000000  0.000000  0.000000  0.000000  0.000000
                       0.000000  0.000000  0.000000  0.000000  0.000000  0.000000
                       0.000000  0.000000  0.000000  0.000000  0.000000  0.000000
                       0.000000  0.000000  0.000000  0.000000  0.000000  0.000000
                       0.000000  0.000000  0.000000  0.000000  0.000000  0.000000
                       0.000000  0.000000  0.000000  0.000000  0.000000  0.000000
           occopt           3
        optdriver           4
           prtvol           5
            rprim     -5.0000000000E-01  5.0000000000E-01  5.0000000000E-01
                       5.0000000000E-01 -5.0000000000E-01  5.0000000000E-01
                       5.0000000000E-01  5.0000000000E-01 -5.0000000000E-01
          spgroup         229
           strten1     0.0000000000E+00  0.0000000000E+00  0.0000000000E+00
                       0.0000000000E+00  0.0000000000E+00  0.0000000000E+00
           symrel      1  0  0   0  1  0   0  0  1      -1  0  0   0 -1  0   0  0 -1
                      -1 -1 -1   0  0  1   0  1  0       1  1  1   0  0 -1   0 -1  0
                       0  1  0   1  0  0  -1 -1 -1       0 -1  0  -1  0  0   1  1  1
                       0  0  1  -1 -1 -1   1  0  0       0  0 -1   1  1  1  -1  0  0
                       0  1  0   1  0  0   0  0  1       0 -1  0  -1  0  0   0  0 -1
                      -1 -1 -1   0  0  1   1  0  0       1  1  1   0  0 -1  -1  0  0
                       1  0  0   0  1  0  -1 -1 -1      -1  0  0   0 -1  0   1  1  1
                       0  0  1  -1 -1 -1   0  1  0       0  0 -1   1  1  1   0 -1  0
                      -1 -1 -1   1  0  0   0  0  1       1  1  1  -1  0  0   0  0 -1
                       0  1  0   0  0  1   1  0  0       0 -1  0   0  0 -1  -1  0  0
                       1  0  0  -1 -1 -1   0  1  0      -1  0  0   1  1  1   0 -1  0
                       0  0  1   0  1  0  -1 -1 -1       0  0 -1   0 -1  0   1  1  1
                       1  0  0  -1 -1 -1   0  0  1      -1  0  0   1  1  1   0  0 -1
                       0  1  0   0  0  1  -1 -1 -1       0 -1  0   0  0 -1   1  1  1
                      -1 -1 -1   1  0  0   0  1  0       1  1  1  -1  0  0   0 -1  0
                       0  0  1   0  1  0   1  0  0       0  0 -1   0 -1  0  -1  0  0
                       0  1  0  -1 -1 -1   0  0  1       0 -1  0   1  1  1   0  0 -1
                       1  0  0   0  0  1  -1 -1 -1      -1  0  0   0  0 -1   1  1  1
                      -1 -1 -1   0  1  0   1  0  0       1  1  1   0 -1  0  -1  0  0
                       0  0  1   1  0  0   0  1  0       0  0 -1  -1  0  0   0 -1  0
                      -1 -1 -1   0  1  0   0  0  1       1  1  1   0 -1  0   0  0 -1
                       1  0  0   0  0  1   0  1  0      -1  0  0   0  0 -1   0 -1  0
                       0  1  0  -1 -1 -1   1  0  0       0 -1  0   1  1  1  -1  0  0
                       0  0  1   1  0  0  -1 -1 -1       0  0 -1  -1  0  0   1  1  1
         symsigma        1
           tsmear      5.00000000E-03 Hartree
            typat      1
              wtk        0.00013    0.00150    0.00150    0.00150    0.00150    0.00150
                         0.00150    0.00150    0.00150    0.00150    0.00075    0.00300
                         0.00600    0.00600    0.00600    0.00600    0.00600    0.00600
                         0.00600    0.00600    0.00300    0.00600    0.00600    0.00600
                         0.00600    0.00600    0.00600    0.00300    0.00300    0.00600
                         0.00600    0.00600    0.00600    0.00600    0.00300    0.00600
                         0.00600    0.00600    0.00300    0.00300    0.00600    0.00600
                         0.00300    0.00300    0.00100    0.00300    0.00300    0.00300
                         0.00300    0.00300    0.00300    0.00300    0.00150    0.00075
                         0.00300    0.00600    0.00600    0.00600    0.00600    0.00600
                         0.00600    0.00300    0.00300    0.00600    0.00600    0.00600
                         0.00600    0.00300    0.00300    0.00300    0.00300    0.00600
                         0.00600    0.00600    0.00300    0.00600    0.00300    0.00600
                         0.00300    0.00300    0.00600    0.00300    0.00300    0.00300
                         0.00600    0.00600    0.00300    0.00600    0.00600    0.00300
                         0.00300    0.00600    0.00600    0.00600    0.00300    0.00600
                         0.00600    0.00600    0.00300    0.00150    0.00600    0.00600
                         0.00600    0.00600    0.00300    0.00600    0.00600    0.00300
                         0.00300    0.00600    0.00100    0.00100    0.00300    0.00300
                         0.00300    0.00300    0.00300    0.00150    0.00075    0.00300
                         0.00600    0.00600    0.00600    0.00600    0.00300    0.00300
                         0.00600    0.00600    0.00300    0.00300    0.00300    0.00300
                         0.00600    0.00300    0.00600    0.00100    0.00300    0.00600
                         0.00300    0.00300    0.00600    0.00600    0.00300    0.00600
                         0.00600    0.00300    0.00300    0.00600    0.00600    0.00600
                         0.00150    0.00600    0.00600    0.00600    0.00300    0.00300
                         0.00600    0.00600    0.00300    0.00300    0.00100    0.00300
                         0.00300    0.00300    0.00150    0.00075    0.00300    0.00600
                         0.00600    0.00300    0.00300    0.00300    0.00300    0.00300
                         0.00300    0.00600    0.00300    0.00600    0.00300    0.00300
                         0.00600    0.00600    0.00300    0.00600    0.00600    0.00300
                         0.00150    0.00600    0.00600    0.00600    0.00300    0.00600
                         0.00300    0.00300    0.00100    0.00300    0.00150    0.00075
                         0.00300    0.00300    0.00300    0.00300    0.00300    0.00600
                         0.00300    0.00600    0.00300    0.00300    0.00600    0.00600
                         0.00150    0.00600    0.00600    0.00300    0.00300    0.00600
                         0.00100    0.00025    0.00075    0.00300    0.00300    0.00300
                         0.00300    0.00600    0.00300    0.00600    0.00300    0.00150
                         0.00600    0.00600    0.00300    0.00300    0.00075    0.00300
                         0.00300    0.00300    0.00300    0.00600    0.00150    0.00600
                         0.00300    0.00300    0.00075    0.00300    0.00300    0.00300
                         0.00150    0.00600    0.00100    0.00075    0.00300    0.00150
                         0.00300    0.00075    0.00150    0.00013
            znucl       11.00000

================================================================================


- Timing analysis has been suppressed with timopt=0



================================================================================

 Suggested references for the acknowledgment of ABINIT usage.

 The users of ABINIT have little formal obligations with respect to the ABINIT group
 (those specified in the GNU General Public License, http://www.gnu.org/copyleft/gpl.txt).
 However, it is common practice in the scientific literature,
 to acknowledge the efforts of people that have made the research possible.
 In this spirit, please find below suggested citations of work written by ABINIT developers,
 corresponding to implementations inside of ABINIT that you have used in the present run.
 Note also that it will be of great value to readers of publications presenting these results,
 to read papers enabling them to understand the theoretical formalism and details
 of the ABINIT implementation.
 For information on why they are suggested, see also http://www.abinit.org/about/?text=acknowledgments.

 [1] Effect of self-consistency on quasiparticles in solids
 F. Bruneval, N. Vast, L. Reining, Phys. Rev. B 74, 045102 (2006).
 Comment : in case gwcalctyp >= 10.

 [2] Ab initio pseudopotentials for electronic structure calculations of poly-atomic systems, 
 using density-functional theory.
 M. Fuchs, M. Scheffler, Comput. Phys. Commun. 119, 67 (1999).
 Comment : Some pseudopotential generated using the FHI code were used.

 [3] ABINIT : First-principles approach of materials and nanosystem properties.
 X. Gonze, B. Amadon, P.-M. Anglade, J.-M. Beuken, F. Bottin, P. Boulanger, F. Bruneval,
 D. Caliste, R. Caracas, M. Cote, T. Deutsch, L. Genovese, Ph. Ghosez, M. Giantomassi
 S. Goedecker, D.R. Hamann, P. Hermet, F. Jollet, G. Jomard, S. Leroux, M. Mancini, S. Mazevet,
 M.J.T. Oliveira, G. Onida, Y. Pouillon, T. Rangel, G.-M. Rignanese, D. Sangalli, R. Shaltaf,
 M. Torrent, M.J. Verstraete, G. Zerah, J.W. Zwanziger
 Computer Phys. Comm. 180, 2582-2615 (2009).
 Comment : the third generic paper describing the ABINIT project.
 Note that a version of this paper, that is not formatted for Computer Phys. Comm. 
 is available at http://www.abinit.org/about/ABINIT_CPC_v10.pdf .
 The licence allows the authors to put it on the Web.

 [4] A brief introduction to the ABINIT software package.
 X. Gonze, G.-M. Rignanese, M. Verstraete, J.-M. Beuken, Y. Pouillon, R. Caracas, F. Jollet,
 M. Torrent, G. Zerah, M. Mikami, Ph. Ghosez, M. Veithen, J.-Y. Raty, V. Olevano, F. Bruneval,
 L. Reining, R. Godby, G. Onida, D.R. Hamann, and D.C. Allan.
 Z. Kristallogr. 220, 558-562 (2005).
 Comment : the second generic paper describing the ABINIT project. Note that this paper
 should be cited especially if you are using the GW part of ABINIT, as several authors
 of this part are not in the list of authors of the first or third paper.
 The .pdf of the latter paper is available at http://www.abinit.org/about/zfk_0505-06_558-562.pdf.
 Note that it should not redistributed (Copyright by Oldenburg Wissenshaftverlag,
 the licence allows the authors to put it on the Web).


 And optionally :

 [5] First-principles computation of material properties : the ABINIT software project. 
 X. Gonze, J.-M. Beuken, R. Caracas, F. Detraux, M. Fuchs, G.-M. Rignanese, L. Sindic,
 M. Verstraete, G. Zerah, F. Jollet, M. Torrent, A. Roy, M. Mikami, Ph. Ghosez, J.-Y. Raty, D.C. Allan.
 Computational Materials Science 25, 478-492 (2002). http://dx.doi.org/10.1016/S0927-0256(02)00325-7
 Comment : the original paper describing the ABINIT project.
-
- Proc.   0 individual time (sec): cpu=     235712.0  wall=     236018.1

================================================================================

 Calculation completed.
.Delivered  261 WARNINGs and  13 COMMENTs to log file.
+Overall time at end (sec) : cpu=   14582706.6  wall=   15105147.1
